begin
comment 
lattice   1.5246000000000000E+01   0.0000000000000000E+00   0.0000000000000000E+00
lattice   0.0000000000000000E+00   1.1884000000000000E+01   0.0000000000000000E+00
lattice  -5.9893571590294590E+00   0.0000000000000000E+00   1.2091965796411374E+01
atom  -6.3222039726509083E-02   2.7213332192000164E+00   1.5959841158282275E+00  S   0.0000000000000000E+00   0.0000000000000000E+00   0.0000000000000000E+00   0.0000000000000000E+00   0.0000000000000000E+00
atom  -1.2218976117831666E+00   3.4975551834145056E+00   3.3024074619467192E+00 Cu   0.0000000000000000E+00   0.0000000000000000E+00   0.0000000000000000E+00   0.0000000000000000E+00   0.0000000000000000E+00
atom   2.2975261084466503E+00   2.4867998405092169E+00   1.6682930642209688E+00 Cu   0.0000000000000000E+00   0.0000000000000000E+00   0.0000000000000000E+00   0.0000000000000000E+00   0.0000000000000000E+00
atom   9.2595735904656429E-01   4.7160834179505544E+00   2.1864648724025315E+00 Cu   0.0000000000000000E+00   0.0000000000000000E+00   0.0000000000000000E+00   0.0000000000000000E+00   0.0000000000000000E+00
atom   6.1485017077568083E+00   4.8827401636757868E+00   1.3682845599230682E+00  S   0.0000000000000000E+00   0.0000000000000000E+00   0.0000000000000000E+00   0.0000000000000000E+00   0.0000000000000000E+00
atom   6.2072977087514083E+00   8.1672328840193764E-01   1.1263356160245341E+00  S   0.0000000000000000E+00   0.0000000000000000E+00   0.0000000000000000E+00   0.0000000000000000E+00   0.0000000000000000E+00
atom   2.8545960573194376E+00   5.0562648466419455E+00   3.5127699439768656E+00  S   0.0000000000000000E+00   0.0000000000000000E+00   0.0000000000000000E+00   0.0000000000000000E+00   0.0000000000000000E+00
atom   2.5280446081058403E+00   9.8761114659312488E-01   3.4546258942768104E+00  S   0.0000000000000000E+00   0.0000000000000000E+00   0.0000000000000000E+00   0.0000000000000000E+00   0.0000000000000000E+00
atom   5.0636745864543604E+00   2.8277408416878531E+00   8.7803251356262990E-01 Cu   0.0000000000000000E+00   0.0000000000000000E+00   0.0000000000000000E+00   0.0000000000000000E+00   0.0000000000000000E+00
atom   5.9351893847858150E+00   9.7183298973030441E-01   3.3936684864074804E+00 Cu   0.0000000000000000E+00   0.0000000000000000E+00   0.0000000000000000E+00   0.0000000000000000E+00   0.0000000000000000E+00
atom   3.8776676938157437E+00   5.3952074405957999E+00   1.5385978407256071E+00 Cu   0.0000000000000000E+00   0.0000000000000000E+00   0.0000000000000000E+00   0.0000000000000000E+00   0.0000000000000000E+00
atom   3.9063374152685837E+00   5.5321179866997516E-01   1.6920852931497312E+00 Cu   0.0000000000000000E+00   0.0000000000000000E+00   0.0000000000000000E+00   0.0000000000000000E+00   0.0000000000000000E+00
atom   6.4733650748918343E+00   3.4653323460294470E+00   3.0863194805322518E+00 Cu   0.0000000000000000E+00   0.0000000000000000E+00   0.0000000000000000E+00   0.0000000000000000E+00   0.0000000000000000E+00
atom   9.2018231440970748E+00   3.0394536244224537E+00   2.7167109650835215E+00  S   0.0000000000000000E+00   0.0000000000000000E+00   0.0000000000000000E+00   0.0000000000000000E+00   0.0000000000000000E+00
atom   8.3291221040738499E+00   5.1327136820320884E+00   2.1742789655158457E+00 Cu   0.0000000000000000E+00   0.0000000000000000E+00   0.0000000000000000E+00   0.0000000000000000E+00   0.0000000000000000E+00
atom   8.2929894747643598E+00   1.1048200432831228E+00   2.0123418174814716E+00 Cu   0.0000000000000000E+00   0.0000000000000000E+00   0.0000000000000000E+00   0.0000000000000000E+00   0.0000000000000000E+00
atom   1.0985087203572942E+01   7.5522919149005641E-01   2.0016011968635223E+00 Cu   0.0000000000000000E+00   0.0000000000000000E+00   0.0000000000000000E+00   0.0000000000000000E+00   0.0000000000000000E+00
atom   1.0344611827705060E+01   3.6064401948010674E+00   8.4457814451659541E-01 Cu   0.0000000000000000E+00   0.0000000000000000E+00   0.0000000000000000E+00   0.0000000000000000E+00   0.0000000000000000E+00
atom   1.2047560188123802E+01   4.9691973919652277E+00   3.3347578922273829E-02  S   0.0000000000000000E+00   0.0000000000000000E+00   0.0000000000000000E+00   0.0000000000000000E+00   0.0000000000000000E+00
atom   1.1991293638653911E+01   9.1470470463996667E-01   1.5285962666913138E-02  S   0.0000000000000000E+00   0.0000000000000000E+00   0.0000000000000000E+00   0.0000000000000000E+00   0.0000000000000000E+00
atom   1.1402315295890951E+01   2.9489698496898580E+00   3.4975487367512943E+00 Cu   0.0000000000000000E+00   0.0000000000000000E+00   0.0000000000000000E+00   0.0000000000000000E+00   0.0000000000000000E+00
atom   1.4280587496556851E+01   4.1894891928816529E+00   9.0562478296241020E-02 Cu   0.0000000000000000E+00   0.0000000000000000E+00   0.0000000000000000E+00   0.0000000000000000E+00   0.0000000000000000E+00
atom   1.1494559958061608E+01   5.4792013400894479E+00   2.1768055795782284E+00 Cu   0.0000000000000000E+00   0.0000000000000000E+00   0.0000000000000000E+00   0.0000000000000000E+00   0.0000000000000000E+00
atom   1.3942284328935717E+01   1.0446463591382502E+00   2.6644206587996599E+00 Cu   0.0000000000000000E+00   0.0000000000000000E+00   0.0000000000000000E+00   0.0000000000000000E+00   0.0000000000000000E+00
atom  -2.9865622507738859E-01   1.0886618169469605E+01   1.9115773760490573E+00  S   0.0000000000000000E+00   0.0000000000000000E+00   0.0000000000000000E+00   0.0000000000000000E+00   0.0000000000000000E+00
atom   1.4360923798477938E-02   6.8106100734088599E+00   1.8682155240124618E+00  S   0.0000000000000000E+00   0.0000000000000000E+00   0.0000000000000000E+00   0.0000000000000000E+00   0.0000000000000000E+00
atom   8.4900612459431724E-01   8.8909698496898564E+00   2.5484341614543924E+00 Cu   0.0000000000000000E+00   0.0000000000000000E+00   0.0000000000000000E+00   0.0000000000000000E+00   0.0000000000000000E+00
atom   1.0451386748903471E+00   1.0364295613585004E+01   1.5407045499057637E-01 Cu   0.0000000000000000E+00   0.0000000000000000E+00   0.0000000000000000E+00   0.0000000000000000E+00   0.0000000000000000E+00
atom   7.5676146242366127E-01   1.1421201340089445E+01   3.8691773186274592E+00 Cu   0.0000000000000000E+00   0.0000000000000000E+00   0.0000000000000000E+00   0.0000000000000000E+00   0.0000000000000000E+00
atom   1.2662342169123300E+00   6.6972291914900586E+00   4.0443817013421741E+00 Cu   0.0000000000000000E+00   0.0000000000000000E+00   0.0000000000000000E+00   0.0000000000000000E+00   0.0000000000000000E+00
atom  -1.6909629084504465E+00   6.9866463591382484E+00   3.3815622394060272E+00 Cu   0.0000000000000000E+00   0.0000000000000000E+00   0.0000000000000000E+00   0.0000000000000000E+00   0.0000000000000000E+00
atom   3.0494982763881975E+00   8.9814536244224534E+00   3.3292719331221678E+00  S   0.0000000000000000E+00   0.0000000000000000E+00   0.0000000000000000E+00   0.0000000000000000E+00   0.0000000000000000E+00
atom   6.3854071451700856E+00   8.5260966499496025E+00   9.9147115406533193E-01  S   0.0000000000000000E+00   0.0000000000000000E+00   0.0000000000000000E+00   0.0000000000000000E+00   0.0000000000000000E+00
atom   3.9221993164114224E+00   1.1074713682032087E+01   3.8717039326898419E+00 Cu   0.0000000000000000E+00   0.0000000000000000E+00   0.0000000000000000E+00   0.0000000000000000E+00   0.0000000000000000E+00
atom   3.9583319457209147E+00   7.0468200432831205E+00   4.0336410807242160E+00 Cu   0.0000000000000000E+00   0.0000000000000000E+00   0.0000000000000000E+00   0.0000000000000000E+00   0.0000000000000000E+00
atom   3.0062105887092616E+00   8.9498736393239451E+00   1.0094619456073395E+00 Cu   0.0000000000000000E+00   0.0000000000000000E+00   0.0000000000000000E+00   0.0000000000000000E+00   0.0000000000000000E+00
atom   6.3161320356994546E+00   6.9138329897302988E+00   2.6523144117982049E+00 Cu   0.0000000000000000E+00   0.0000000000000000E+00   0.0000000000000000E+00   0.0000000000000000E+00   0.0000000000000000E+00
atom   5.7779563455934326E+00   9.4073323460294382E+00   2.9596634176734375E+00 Cu   0.0000000000000000E+00   0.0000000000000000E+00   0.0000000000000000E+00   0.0000000000000000E+00   0.0000000000000000E+00
atom   5.5284082648079051E+00   1.0577383738247729E+01   5.4860034388671675E-01 Cu   0.0000000000000000E+00   0.0000000000000000E+00   0.0000000000000000E+00   0.0000000000000000E+00   0.0000000000000000E+00
atom   9.3967253631658387E+00   1.0998264846641948E+01   2.5332129542288246E+00  S   0.0000000000000000E+00   0.0000000000000000E+00   0.0000000000000000E+00   0.0000000000000000E+00   0.0000000000000000E+00
atom   9.7232768123794298E+00   6.9296111465931247E+00   2.5913570039288825E+00  S   0.0000000000000000E+00   0.0000000000000000E+00   0.0000000000000000E+00   0.0000000000000000E+00   0.0000000000000000E+00
atom   8.1130933449844473E+00   1.0026873083941222E+01   7.7365055915040726E-01 Cu   0.0000000000000000E+00   0.0000000000000000E+00   0.0000000000000000E+00   0.0000000000000000E+00   0.0000000000000000E+00
atom   8.4598738867781655E+00   7.4489859602651292E+00   7.8585988573770393E-01 Cu   0.0000000000000000E+00   0.0000000000000000E+00   0.0000000000000000E+00   0.0000000000000000E+00   0.0000000000000000E+00
atom   1.0328700493409304E+01   9.0981571692979131E+00   1.7867115593252765E+00 Cu   0.0000000000000000E+00   0.0000000000000000E+00   0.0000000000000000E+00   0.0000000000000000E+00   0.0000000000000000E+00
atom   1.2123799830537411E+01   8.7748844283229364E+00   3.5548593160458342E-01  S   0.0000000000000000E+00   0.0000000000000000E+00   0.0000000000000000E+00   0.0000000000000000E+00   0.0000000000000000E+00
atom   1.2959085388175337E+01   1.0875080645583157E+01   6.5937497459345762E-01 Cu   0.0000000000000000E+00   0.0000000000000000E+00   0.0000000000000000E+00   0.0000000000000000E+00   0.0000000000000000E+00
atom   1.3279991355654042E+01   6.8316879942493838E+00   7.2124267163106415E-01 Cu   0.0000000000000000E+00   0.0000000000000000E+00   0.0000000000000000E+00   0.0000000000000000E+00   0.0000000000000000E+00
atom   1.3473219032268439E+01   9.4395551834145017E+00   2.7435754362589693E+00 Cu   0.0000000000000000E+00   0.0000000000000000E+00   0.0000000000000000E+00   0.0000000000000000E+00   0.0000000000000000E+00
atom   1.1325364061438705E+01   1.0658083417950557E+01   3.8595180258031565E+00 Cu   0.0000000000000000E+00   0.0000000000000000E+00   0.0000000000000000E+00   0.0000000000000000E+00   0.0000000000000000E+00
atom  -3.0579006192412326E+00   3.2206667807999860E+00   7.6419670140339147E+00  S   0.0000000000000000E+00   0.0000000000000000E+00   0.0000000000000000E+00   0.0000000000000000E+00   0.0000000000000000E+00
atom   1.2752158994785945E-01   2.8328844283229340E+00   5.6904969666011027E+00  S   0.0000000000000000E+00   0.0000000000000000E+00   0.0000000000000000E+00   0.0000000000000000E+00   0.0000000000000000E+00
atom   2.0689960069396292E+00   3.1142591583121471E+00   6.9240154117683206E+00 Cu   0.0000000000000000E+00   0.0000000000000000E+00   0.0000000000000000E+00   0.0000000000000000E+00   0.0000000000000000E+00
atom  -7.0776396769006711E-01   4.9330806455831580E+00   5.3866079236122246E+00 Cu   0.0000000000000000E+00   0.0000000000000000E+00   0.0000000000000000E+00   0.0000000000000000E+00   0.0000000000000000E+00
atom  -1.0286699351687665E+00   8.8968799424937783E-01   5.3247402265746251E+00 Cu   0.0000000000000000E+00   0.0000000000000000E+00   0.0000000000000000E+00   0.0000000000000000E+00   0.0000000000000000E+00
atom   1.9226209270759653E+00   3.1561571692979156E+00   4.2592713388804135E+00 Cu   0.0000000000000000E+00   0.0000000000000000E+00   0.0000000000000000E+00   0.0000000000000000E+00   0.0000000000000000E+00
atom   8.8298911430101434E-01   5.4679255940420324E-01   7.5845807389312929E+00 Cu   0.0000000000000000E+00   0.0000000000000000E+00   0.0000000000000000E+00   0.0000000000000000E+00   0.0000000000000000E+00
atom   9.1165883575385265E-01   5.3887882013300246E+00   7.7380681913554215E+00 Cu   0.0000000000000000E+00   0.0000000000000000E+00   0.0000000000000000E+00   0.0000000000000000E+00   0.0000000000000000E+00
atom  -6.9715247106807843E-01   3.4552001594907842E+00   7.7142759624266564E+00 Cu   0.0000000000000000E+00   0.0000000000000000E+00   0.0000000000000000E+00   0.0000000000000000E+00   0.0000000000000000E+00
atom   3.1538231282420726E+00   1.0592598363242138E+00   7.4142674581287622E+00  S   0.0000000000000000E+00   0.0000000000000000E+00   0.0000000000000000E+00   0.0000000000000000E+00   0.0000000000000000E+00
atom   3.2126191292366766E+00   5.1252767115980626E+00   7.1723185142302199E+00  S   0.0000000000000000E+00   0.0000000000000000E+00   0.0000000000000000E+00   0.0000000000000000E+00   0.0000000000000000E+00
atom   5.8659142753151912E+00   2.5840966499496072E+00   5.0545117441403571E+00  S   0.0000000000000000E+00   0.0000000000000000E+00   0.0000000000000000E+00   0.0000000000000000E+00   0.0000000000000000E+00
atom   4.1382280755008232E+00   4.0848730839412255E+00   5.2723323390552821E+00 Cu   0.0000000000000000E+00   0.0000000000000000E+00   0.0000000000000000E+00   0.0000000000000000E+00   0.0000000000000000E+00
atom   3.7914475337071094E+00   1.5069859602651292E+00   5.2601230124679832E+00 Cu   0.0000000000000000E+00   0.0000000000000000E+00   0.0000000000000000E+00   0.0000000000000000E+00   0.0000000000000000E+00
atom   9.0528816086090700E+00   9.7280260803477936E-01   6.0793304771279608E+00  S   0.0000000000000000E+00   0.0000000000000000E+00   0.0000000000000000E+00   0.0000000000000000E+00   0.0000000000000000E+00
atom   8.9966150591391774E+00   5.0272952953600392E+00   6.0612688608725955E+00  S   0.0000000000000000E+00   0.0000000000000000E+00   0.0000000000000000E+00   0.0000000000000000E+00   0.0000000000000000E+00
atom   9.2451108317760120E+00   3.0078736393239480E+00   5.0365209525983481E+00 Cu   0.0000000000000000E+00   0.0000000000000000E+00   0.0000000000000000E+00   0.0000000000000000E+00   0.0000000000000000E+00
atom   6.7229131556773654E+00   4.6353837382477332E+00   5.4973825543189729E+00 Cu   0.0000000000000000E+00   0.0000000000000000E+00   0.0000000000000000E+00   0.0000000000000000E+00   0.0000000000000000E+00
atom   7.3499332481903323E+00   2.3355598051989337E+00   6.8905610427222808E+00 Cu   0.0000000000000000E+00   0.0000000000000000E+00   0.0000000000000000E+00   0.0000000000000000E+00   0.0000000000000000E+00
atom   1.2549977645562659E+01   4.9446181694696065E+00   4.1344055221566283E+00  S   0.0000000000000000E+00   0.0000000000000000E+00   0.0000000000000000E+00   0.0000000000000000E+00   0.0000000000000000E+00
atom   1.2236960496686791E+01   8.6861007340885721E-01   4.1777673741932206E+00  S   0.0000000000000000E+00   0.0000000000000000E+00   0.0000000000000000E+00   0.0000000000000000E+00   0.0000000000000000E+00
atom   1.1206182745594921E+01   4.4222956135850087E+00   5.8919124432151131E+00 Cu   0.0000000000000000E+00   0.0000000000000000E+00   0.0000000000000000E+00   0.0000000000000000E+00   0.0000000000000000E+00
atom   1.1285908917042121E+01   1.7525108071183486E+00   6.1365453765019335E+00 Cu   0.0000000000000000E+00   0.0000000000000000E+00   0.0000000000000000E+00   0.0000000000000000E+00   0.0000000000000000E+00
atom  -3.2933348045921123E+00   6.9393818305303947E+00   7.9575602742547487E+00  S   0.0000000000000000E+00   0.0000000000000000E+00   0.0000000000000000E+00   0.0000000000000000E+00   0.0000000000000000E+00
atom  -2.9803176557162510E+00   1.1015389926591146E+01   7.9141984222181510E+00  S   0.0000000000000000E+00   0.0000000000000000E+00   0.0000000000000000E+00   0.0000000000000000E+00   0.0000000000000000E+00
atom  -1.9495399046243831E+00   7.4617043864149935E+00   6.2000533531962612E+00 Cu   0.0000000000000000E+00   0.0000000000000000E+00   0.0000000000000000E+00   0.0000000000000000E+00   0.0000000000000000E+00
atom  -2.0292660760715795E+00   1.0131489192881649E+01   5.9554204199094380E+00 Cu   0.0000000000000000E+00   0.0000000000000000E+00   0.0000000000000000E+00   0.0000000000000000E+00   0.0000000000000000E+00
atom   2.0376123236146301E-01   1.0911197391965223E+01   6.0126353192834152E+00  S   0.0000000000000000E+00   0.0000000000000000E+00   0.0000000000000000E+00   0.0000000000000000E+00   0.0000000000000000E+00
atom   2.6002778183135766E-01   6.8567047046399638E+00   6.0306969355387778E+00  S   0.0000000000000000E+00   0.0000000000000000E+00   0.0000000000000000E+00   0.0000000000000000E+00   0.0000000000000000E+00
atom   1.1532009194529420E-02   8.8761263606760537E+00   7.0554448438130288E+00 Cu   0.0000000000000000E+00   0.0000000000000000E+00   0.0000000000000000E+00   0.0000000000000000E+00   0.0000000000000000E+00
atom   2.5337296852931739E+00   7.2486162617522680E+00   6.5945832420924004E+00 Cu   0.0000000000000000E+00   0.0000000000000000E+00   0.0000000000000000E+00   0.0000000000000000E+00   0.0000000000000000E+00
atom   1.9067095927802074E+00   9.5484401948010618E+00   5.2014047536890908E+00 Cu   0.0000000000000000E+00   0.0000000000000000E+00   0.0000000000000000E+00   0.0000000000000000E+00   0.0000000000000000E+00
atom   6.1028197127284676E+00   1.0824740163675783E+01   4.6776983382826121E+00  S   0.0000000000000000E+00   0.0000000000000000E+00   0.0000000000000000E+00   0.0000000000000000E+00   0.0000000000000000E+00
atom   6.0440237117338595E+00   6.7587232884019368E+00   4.9196472821811552E+00  S   0.0000000000000000E+00   0.0000000000000000E+00   0.0000000000000000E+00   0.0000000000000000E+00   0.0000000000000000E+00
atom   3.3907285656553521E+00   9.2999033500503980E+00   7.0374540522710145E+00  S   0.0000000000000000E+00   0.0000000000000000E+00   0.0000000000000000E+00   0.0000000000000000E+00   0.0000000000000000E+00
atom   5.1184147654697156E+00   7.7991269160587784E+00   6.8196334573560922E+00 Cu   0.0000000000000000E+00   0.0000000000000000E+00   0.0000000000000000E+00   0.0000000000000000E+00   0.0000000000000000E+00
atom   5.4651953072634312E+00   1.0377014039734869E+01   6.8318427839433884E+00 Cu   0.0000000000000000E+00   0.0000000000000000E+00   0.0000000000000000E+00   0.0000000000000000E+00   0.0000000000000000E+00
atom   9.1291212510226778E+00   9.0511155716770624E+00   6.4014688298102662E+00  S   0.0000000000000000E+00   0.0000000000000000E+00   0.0000000000000000E+00   0.0000000000000000E+00   0.0000000000000000E+00
atom   7.1876468340309074E+00   8.7697408416878488E+00   5.1679503846430546E+00 Cu   0.0000000000000000E+00   0.0000000000000000E+00   0.0000000000000000E+00   0.0000000000000000E+00   0.0000000000000000E+00
atom   9.9644068086606055E+00   6.9509193544168451E+00   6.7053578727991470E+00 Cu   0.0000000000000000E+00   0.0000000000000000E+00   0.0000000000000000E+00   0.0000000000000000E+00   0.0000000000000000E+00
atom   1.0285312776139314E+01   1.0994312005750620E+01   6.7672255698367518E+00 Cu   0.0000000000000000E+00   0.0000000000000000E+00   0.0000000000000000E+00   0.0000000000000000E+00   0.0000000000000000E+00
atom   7.3340219138945750E+00   8.7278428307020874E+00   7.8326944575309598E+00 Cu   0.0000000000000000E+00   0.0000000000000000E+00   0.0000000000000000E+00   0.0000000000000000E+00   0.0000000000000000E+00
atom   8.3736537266695326E+00   1.1337207440595797E+01   4.5073850574800822E+00 Cu   0.0000000000000000E+00   0.0000000000000000E+00   0.0000000000000000E+00   0.0000000000000000E+00   0.0000000000000000E+00
atom   8.3449840052166806E+00   6.4952117986699758E+00   4.3538976050559546E+00 Cu   0.0000000000000000E+00   0.0000000000000000E+00   0.0000000000000000E+00   0.0000000000000000E+00   0.0000000000000000E+00
atom   9.9537953120386184E+00   8.4287998405092104E+00   4.3776898339847117E+00 Cu   0.0000000000000000E+00   0.0000000000000000E+00   0.0000000000000000E+00   0.0000000000000000E+00   0.0000000000000000E+00
atom   1.2314543460211780E+01   8.6633332192000161E+00   4.4499987823774596E+00  S   0.0000000000000000E+00   0.0000000000000000E+00   0.0000000000000000E+00   0.0000000000000000E+00   0.0000000000000000E+00
atom  -2.8671569895668685E+00   3.1091155716770671E+00   1.1736479864806791E+01  S   0.0000000000000000E+00   0.0000000000000000E+00   0.0000000000000000E+00   0.0000000000000000E+00   0.0000000000000000E+00
atom  -3.7024425472047953E+00   1.0089193544168427E+00   1.1432590821817913E+01 Cu   0.0000000000000000E+00   0.0000000000000000E+00   0.0000000000000000E+00   0.0000000000000000E+00   0.0000000000000000E+00
atom  -4.0233485146834962E+00   5.0523120057506183E+00   1.1370723124780312E+01 Cu   0.0000000000000000E+00   0.0000000000000000E+00   0.0000000000000000E+00   0.0000000000000000E+00   0.0000000000000000E+00
atom  -4.2165761912978974E+00   2.4444448165854933E+00   9.3483903601524005E+00 Cu   0.0000000000000000E+00   0.0000000000000000E+00   0.0000000000000000E+00   0.0000000000000000E+00   0.0000000000000000E+00
atom  -2.0687212204681700E+00   1.2259165820494400E+00   8.2324477706082178E+00 Cu   0.0000000000000000E+00   0.0000000000000000E+00   0.0000000000000000E+00   0.0000000000000000E+00   0.0000000000000000E+00
atom  -1.4008252219529096E-01   8.8573515335805575E-01   9.5587528421825461E+00  S   0.0000000000000000E+00   0.0000000000000000E+00   0.0000000000000000E+00   0.0000000000000000E+00   0.0000000000000000E+00
atom  -4.6663397140889201E-01   4.9543888534068792E+00   9.5006087924824971E+00  S   0.0000000000000000E+00   0.0000000000000000E+00   0.0000000000000000E+00   0.0000000000000000E+00   0.0000000000000000E+00
atom   1.1435494959860919E+00   1.8571269160587771E+00   1.1318315237260967E+01 Cu   0.0000000000000000E+00   0.0000000000000000E+00   0.0000000000000000E+00   0.0000000000000000E+00   0.0000000000000000E+00
atom   7.9676895419237870E-01   4.4350140397348703E+00   1.1306105910673665E+01 Cu   0.0000000000000000E+00   0.0000000000000000E+00   0.0000000000000000E+00   0.0000000000000000E+00   0.0000000000000000E+00
atom  -1.0720576524387655E+00   2.7858428307020842E+00   1.0305254237086098E+01 Cu   0.0000000000000000E+00   0.0000000000000000E+00   0.0000000000000000E+00   0.0000000000000000E+00   0.0000000000000000E+00
atom   6.2071445645823431E+00   2.9025463755775549E+00   8.7626938632892060E+00  S   0.0000000000000000E+00   0.0000000000000000E+00   0.0000000000000000E+00   0.0000000000000000E+00   0.0000000000000000E+00
atom   2.8712356958004572E+00   3.3579033500503979E+00   1.1100494642346048E+01  S   0.0000000000000000E+00   0.0000000000000000E+00   0.0000000000000000E+00   0.0000000000000000E+00   0.0000000000000000E+00
atom   5.3344435245591182E+00   8.0928631796791350E-01   8.2202618637215377E+00 Cu   0.0000000000000000E+00   0.0000000000000000E+00   0.0000000000000000E+00   0.0000000000000000E+00   0.0000000000000000E+00
atom   5.2983108952496272E+00   4.8371799567168772E+00   8.0583247156871511E+00 Cu   0.0000000000000000E+00   0.0000000000000000E+00   0.0000000000000000E+00   0.0000000000000000E+00   0.0000000000000000E+00
atom   6.2504322522612812E+00   2.9341263606760544E+00   1.1082503850804033E+01 Cu   0.0000000000000000E+00   0.0000000000000000E+00   0.0000000000000000E+00   0.0000000000000000E+00   0.0000000000000000E+00
atom   2.9405108052710873E+00   4.9701670102697024E+00   9.4396513846131676E+00 Cu   0.0000000000000000E+00   0.0000000000000000E+00   0.0000000000000000E+00   0.0000000000000000E+00   0.0000000000000000E+00
atom   3.4786864953771062E+00   2.4766676539705559E+00   9.1323023787379380E+00 Cu   0.0000000000000000E+00   0.0000000000000000E+00   0.0000000000000000E+00   0.0000000000000000E+00   0.0000000000000000E+00
atom   3.7282345761626345E+00   1.3066162617522679E+00   1.1543365452524659E+01 Cu   0.0000000000000000E+00   0.0000000000000000E+00   0.0000000000000000E+00   0.0000000000000000E+00   0.0000000000000000E+00
atom   9.5552990660479278E+00   9.9738183053039386E-01   1.0180388420362311E+01  S   0.0000000000000000E+00   0.0000000000000000E+00   0.0000000000000000E+00   0.0000000000000000E+00   0.0000000000000000E+00
atom   9.2422819171720612E+00   5.0733899265911457E+00   1.0223750272398906E+01  S   0.0000000000000000E+00   0.0000000000000000E+00   0.0000000000000000E+00   0.0000000000000000E+00   0.0000000000000000E+00
atom   8.4076367163762171E+00   2.9930301503101462E+00   9.5435316349569810E+00 Cu   0.0000000000000000E+00   0.0000000000000000E+00   0.0000000000000000E+00   0.0000000000000000E+00   0.0000000000000000E+00
atom   8.2115041660801911E+00   1.5197043864149977E+00   1.1937895341420800E+01 Cu   0.0000000000000000E+00   0.0000000000000000E+00   0.0000000000000000E+00   0.0000000000000000E+00   0.0000000000000000E+00
atom   8.4998813785468776E+00   4.6279865991055325E-01   8.2227884777839115E+00 Cu   0.0000000000000000E+00   0.0000000000000000E+00   0.0000000000000000E+00   0.0000000000000000E+00   0.0000000000000000E+00
atom   7.9904086240582082E+00   5.1867708085099427E+00   8.0475840950691993E+00 Cu   0.0000000000000000E+00   0.0000000000000000E+00   0.0000000000000000E+00   0.0000000000000000E+00   0.0000000000000000E+00
atom   1.0947605749420985E+01   4.8973536408617528E+00   8.7104035570053497E+00 Cu   0.0000000000000000E+00   0.0000000000000000E+00   0.0000000000000000E+00   0.0000000000000000E+00   0.0000000000000000E+00
atom  -2.7909173471532687E+00   6.9148026080347744E+00   1.2058618217489109E+01  S   0.0000000000000000E+00   0.0000000000000000E+00   0.0000000000000000E+00   0.0000000000000000E+00   0.0000000000000000E+00
atom  -2.7346507976833720E+00   1.0969295295360038E+01   1.2076679833744464E+01  S   0.0000000000000000E+00   0.0000000000000000E+00   0.0000000000000000E+00   0.0000000000000000E+00   0.0000000000000000E+00
atom  -2.1456724549204136E+00   8.9350301503101441E+00   8.5944170596600848E+00 Cu   0.0000000000000000E+00   0.0000000000000000E+00   0.0000000000000000E+00   0.0000000000000000E+00   0.0000000000000000E+00
atom  -5.0239446555863099E+00   7.6945108071183466E+00   1.2001403318115136E+01 Cu   0.0000000000000000E+00   0.0000000000000000E+00   0.0000000000000000E+00   0.0000000000000000E+00   0.0000000000000000E+00
atom  -2.2379171170910688E+00   6.4047986599105533E+00   9.9151602168331507E+00 Cu   0.0000000000000000E+00   0.0000000000000000E+00   0.0000000000000000E+00   0.0000000000000000E+00   0.0000000000000000E+00
atom  -4.6856414879651780E+00   1.0839353640861752E+01   9.4275451376117143E+00 Cu   0.0000000000000000E+00   0.0000000000000000E+00   0.0000000000000000E+00   0.0000000000000000E+00   0.0000000000000000E+00
atom   5.4819696873465884E-02   8.8445463755775471E+00   9.3752548313278581E+00  S   0.0000000000000000E+00   0.0000000000000000E+00   0.0000000000000000E+00   0.0000000000000000E+00   0.0000000000000000E+00
atom   9.2752073689669157E-01   6.7512863179679155E+00   9.9176868308955211E+00 Cu   0.0000000000000000E+00   0.0000000000000000E+00   0.0000000000000000E+00   0.0000000000000000E+00   0.0000000000000000E+00
atom   9.6365336620618169E-01   1.0779179956716876E+01   1.0079623978929909E+01 Cu   0.0000000000000000E+00   0.0000000000000000E+00   0.0000000000000000E+00   0.0000000000000000E+00   0.0000000000000000E+00
atom  -1.7284443626024004E+00   1.1128770808509943E+01   1.0090364599547861E+01 Cu   0.0000000000000000E+00   0.0000000000000000E+00   0.0000000000000000E+00   0.0000000000000000E+00   0.0000000000000000E+00
atom  -1.0879689867345204E+00   8.2775598051989370E+00   1.1247387651894780E+01 Cu   0.0000000000000000E+00   0.0000000000000000E+00   0.0000000000000000E+00   0.0000000000000000E+00   0.0000000000000000E+00
atom   3.1081411332137332E+00   7.0012598363242153E+00   1.0723681236488300E+01  S   0.0000000000000000E+00   0.0000000000000000E+00   0.0000000000000000E+00   0.0000000000000000E+00   0.0000000000000000E+00
atom   3.0493451322191367E+00   1.1067276711598067E+01   1.0965630180386842E+01  S   0.0000000000000000E+00   0.0000000000000000E+00   0.0000000000000000E+00   0.0000000000000000E+00   0.0000000000000000E+00
atom   6.4020467836511044E+00   6.8277351533580584E+00   8.5791958524345127E+00  S   0.0000000000000000E+00   0.0000000000000000E+00   0.0000000000000000E+00   0.0000000000000000E+00   0.0000000000000000E+00
atom   6.7285982328647007E+00   1.0896388853406869E+01   8.6373399021345634E+00  S   0.0000000000000000E+00   0.0000000000000000E+00   0.0000000000000000E+00   0.0000000000000000E+00   0.0000000000000000E+00
atom   4.1929682545161766E+00   9.0562591583121517E+00   1.1213933282848739E+01 Cu   0.0000000000000000E+00   0.0000000000000000E+00   0.0000000000000000E+00   0.0000000000000000E+00   0.0000000000000000E+00
atom   3.3214534561847233E+00   1.0912167010269700E+01   8.6982973100038965E+00 Cu   0.0000000000000000E+00   0.0000000000000000E+00   0.0000000000000000E+00   0.0000000000000000E+00   0.0000000000000000E+00
atom   5.3789751471547991E+00   6.4887925594042022E+00   1.0553367955685768E+01 Cu   0.0000000000000000E+00   0.0000000000000000E+00   0.0000000000000000E+00   0.0000000000000000E+00   0.0000000000000000E+00
atom   5.3503054257019587E+00   1.1330788201330027E+01   1.0399880503261643E+01 Cu   0.0000000000000000E+00   0.0000000000000000E+00   0.0000000000000000E+00   0.0000000000000000E+00   0.0000000000000000E+00
atom   2.7832777660787045E+00   8.4186676539705569E+00   9.0056463158791189E+00 Cu   0.0000000000000000E+00   0.0000000000000000E+00   0.0000000000000000E+00   0.0000000000000000E+00   0.0000000000000000E+00
atom   9.3198648806970485E+00   9.1626667807999844E+00   1.0495981680583151E+01  S   0.0000000000000000E+00   0.0000000000000000E+00   0.0000000000000000E+00   0.0000000000000000E+00   0.0000000000000000E+00
atom   1.0478540452753712E+01   8.3864448165854970E+00   8.7895583344646635E+00 Cu   0.0000000000000000E+00   0.0000000000000000E+00   0.0000000000000000E+00   0.0000000000000000E+00   0.0000000000000000E+00