begin
comment 
lattice   3.3956488880283203E+01   0.0000000000000000E+00   0.0000000000000000E+00
lattice   0.0000000000000000E+00   2.9407162188180479E+01   0.0000000000000000E+00
lattice   0.0000000000000000E+00   0.0000000000000000E+00   2.7725343724511134E+01
atom   1.4710219674470775E+00   4.1450659370756391E+00   7.5258396413589184E+00  O   0.0000000000000000E+00   0.0000000000000000E+00   0.0000000000000000E+00   0.0000000000000000E+00   0.0000000000000000E+00
atom  -6.9575434185888949E-02   3.2566027593506841E+00   6.9160015542048612E+00  H   0.0000000000000000E+00   0.0000000000000000E+00   0.0000000000000000E+00   0.0000000000000000E+00   0.0000000000000000E+00
atom   1.4658906506524647E+00   9.0388024318820950E+00   6.0244729616111470E-01  O   0.0000000000000000E+00   0.0000000000000000E+00   0.0000000000000000E+00   0.0000000000000000E+00   0.0000000000000000E+00
atom   5.7054641212752850E+00   1.6896894609839608E+00   5.9424857087411331E-01  O   0.0000000000000000E+00   0.0000000000000000E+00   0.0000000000000000E+00   0.0000000000000000E+00   0.0000000000000000E+00
atom   7.2460303017139145E+00   2.5787604484803972E+00  -1.4256926365968297E-02  H   0.0000000000000000E+00   0.0000000000000000E+00   0.0000000000000000E+00   0.0000000000000000E+00   0.0000000000000000E+00
atom   5.7212480660060727E+00   1.6988251535186576E+00   2.4732851105246385E+00  H   0.0000000000000000E+00   0.0000000000000000E+00   0.0000000000000000E+00   0.0000000000000000E+00   0.0000000000000000E+00
atom   5.7154010258192951E+00   1.6953770348402168E+00   5.7929906821918626E+00  O   0.0000000000000000E+00   0.0000000000000000E+00   0.0000000000000000E+00   0.0000000000000000E+00   0.0000000000000000E+00
atom   4.1753713725421102E+00   2.5659845090560776E+00   6.4282528352428576E+00  H   0.0000000000000000E+00   0.0000000000000000E+00   0.0000000000000000E+00   0.0000000000000000E+00   0.0000000000000000E+00
atom   5.6997166865219855E+00  -7.3434645220381234E-02   6.4279937897449093E+00  H   0.0000000000000000E+00   0.0000000000000000E+00   0.0000000000000000E+00   0.0000000000000000E+00   0.0000000000000000E+00
atom   8.4195770754072683E+00   3.2687383694996455E+00   6.8991802303695078E+00  H   0.0000000000000000E+00   0.0000000000000000E+00   0.0000000000000000E+00   0.0000000000000000E+00   0.0000000000000000E+00
atom   1.4659714620855708E+00   9.0501061749307787E+00   5.8010823462963375E+00  O   0.0000000000000000E+00   0.0000000000000000E+00   0.0000000000000000E+00   0.0000000000000000E+00   0.0000000000000000E+00
atom   1.4657381946463746E+00   9.0322411030963465E+00   3.9218935688287799E+00  H   0.0000000000000000E+00   0.0000000000000000E+00   0.0000000000000000E+00   0.0000000000000000E+00   0.0000000000000000E+00
atom   1.4655454744491214E+00   7.2718931913043594E+00   6.4101095769365033E+00  H   0.0000000000000000E+00   0.0000000000000000E+00   0.0000000000000000E+00   0.0000000000000000E+00   0.0000000000000000E+00
atom   9.9550342225352892E+00   9.0386215641837389E+00   5.7929882987724532E+00  O   0.0000000000000000E+00   0.0000000000000000E+00   0.0000000000000000E+00   0.0000000000000000E+00   0.0000000000000000E+00
atom   9.9601029049894354E+00   4.1392607317161385E+00   7.5338278712106153E+00  O   0.0000000000000000E+00   0.0000000000000000E+00   0.0000000000000000E+00   0.0000000000000000E+00   0.0000000000000000E+00
atom   9.9442926594087293E+00   5.9085271211539903E+00   6.8990894211776812E+00  H   0.0000000000000000E+00   0.0000000000000000E+00   0.0000000000000000E+00   0.0000000000000000E+00   0.0000000000000000E+00
atom   9.9500707869183476E+00   9.0414673628047968E+00   5.9438374759137658E-01  O   0.0000000000000000E+00   0.0000000000000000E+00   0.0000000000000000E+00   0.0000000000000000E+00   0.0000000000000000E+00
atom   9.9661080513786100E+00   9.0511451928725872E+00   2.4741455767665315E+00  H   0.0000000000000000E+00   0.0000000000000000E+00   0.0000000000000000E+00   0.0000000000000000E+00   0.0000000000000000E+00
atom   1.4194822941411607E+01   1.6954123369164640E+00   6.0248507591507194E-01  O   0.0000000000000000E+00   0.0000000000000000E+00   0.0000000000000000E+00   0.0000000000000000E+00   0.0000000000000000E+00
atom   1.5734788908143996E+01   2.5662398846410883E+00  -3.2746788378676395E-02  H   0.0000000000000000E+00   0.0000000000000000E+00   0.0000000000000000E+00   0.0000000000000000E+00   0.0000000000000000E+00
atom   1.4209546928633989E+01  -7.3773713566429408E-02  -3.2605921193660695E-02  H   0.0000000000000000E+00   0.0000000000000000E+00   0.0000000000000000E+00   0.0000000000000000E+00   0.0000000000000000E+00
atom   1.4204460280472290E+01   1.6898028001420085E+00   5.8010222309920731E+00  O   0.0000000000000000E+00   0.0000000000000000E+00   0.0000000000000000E+00   0.0000000000000000E+00   0.0000000000000000E+00
atom   1.2664227393063404E+01   2.5788978397121189E+00   6.4101279939816989E+00  H   0.0000000000000000E+00   0.0000000000000000E+00   0.0000000000000000E+00   0.0000000000000000E+00   0.0000000000000000E+00
atom   1.4189280828786959E+01   1.6984696710249148E+00   3.9217542738108029E+00  H   0.0000000000000000E+00   0.0000000000000000E+00   0.0000000000000000E+00   0.0000000000000000E+00   0.0000000000000000E+00
atom   1.6919979680667854E+01   3.2497773783317281E+00   6.8985649020810378E+00  H   0.0000000000000000E+00   0.0000000000000000E+00   0.0000000000000000E+00   0.0000000000000000E+00   0.0000000000000000E+00
atom   1.8444125453648713E+01   9.0500559944035093E+00   5.8009853096981026E+00  O   0.0000000000000000E+00   0.0000000000000000E+00   0.0000000000000000E+00   0.0000000000000000E+00   0.0000000000000000E+00
atom   1.8444678626474523E+01   9.0318587816194107E+00   3.9217397566100081E+00  H   0.0000000000000000E+00   0.0000000000000000E+00   0.0000000000000000E+00   0.0000000000000000E+00   0.0000000000000000E+00
atom   1.8444544097395127E+01   7.2716411232603360E+00   6.4103350294904358E+00  H   0.0000000000000000E+00   0.0000000000000000E+00   0.0000000000000000E+00   0.0000000000000000E+00   0.0000000000000000E+00
atom   1.8444130355680507E+01   4.1480503085218361E+00   7.5339312929079556E+00  O   0.0000000000000000E+00   0.0000000000000000E+00   0.0000000000000000E+00   0.0000000000000000E+00   0.0000000000000000E+00
atom   1.9968206510610631E+01   3.2500927980156318E+00   6.8985361359346706E+00  H   0.0000000000000000E+00   0.0000000000000000E+00   0.0000000000000000E+00   0.0000000000000000E+00   0.0000000000000000E+00
atom   1.8439180182713098E+01   9.0471728703802672E+00   6.0254704371800272E-01  O   0.0000000000000000E+00   0.0000000000000000E+00   0.0000000000000000E+00   0.0000000000000000E+00   0.0000000000000000E+00
atom   1.8455124182846582E+01   7.2781839398468406E+00  -3.3124407978294364E-02  H   0.0000000000000000E+00   0.0000000000000000E+00   0.0000000000000000E+00   0.0000000000000000E+00   0.0000000000000000E+00
atom   2.2688639144169048E+01   1.6983926076835276E+00   5.9450308221995174E-01  O   0.0000000000000000E+00   0.0000000000000000E+00   0.0000000000000000E+00   0.0000000000000000E+00   0.0000000000000000E+00
atom   2.2689174878139372E+01   1.6799727730747176E+00   2.4742258163637283E+00  H   0.0000000000000000E+00   0.0000000000000000E+00   0.0000000000000000E+00   0.0000000000000000E+00   0.0000000000000000E+00
atom   2.2689293289128909E+01  -7.9891484132822349E-02  -1.5203135567762691E-02  H   0.0000000000000000E+00   0.0000000000000000E+00   0.0000000000000000E+00   0.0000000000000000E+00   0.0000000000000000E+00
atom   2.2683846448481102E+01   1.6955145294285978E+00   5.7929172515264806E+00  O   0.0000000000000000E+00   0.0000000000000000E+00   0.0000000000000000E+00   0.0000000000000000E+00   0.0000000000000000E+00
atom   2.4224029427347912E+01   2.5663732969070367E+00   6.4283149055858209E+00  H   0.0000000000000000E+00   0.0000000000000000E+00   0.0000000000000000E+00   0.0000000000000000E+00   0.0000000000000000E+00
atom   2.2699459235165712E+01  -7.3600244017793470E-02   6.4278894737114731E+00  H   0.0000000000000000E+00   0.0000000000000000E+00   0.0000000000000000E+00   0.0000000000000000E+00   0.0000000000000000E+00
atom   2.6938269274253482E+01   9.0416316424848766E+00   5.8009183742854136E+00  O   0.0000000000000000E+00   0.0000000000000000E+00   0.0000000000000000E+00   0.0000000000000000E+00   0.0000000000000000E+00
atom   2.6922097511282573E+01   9.0502172013073068E+00   3.9210024931251288E+00  H   0.0000000000000000E+00   0.0000000000000000E+00   0.0000000000000000E+00   0.0000000000000000E+00   0.0000000000000000E+00
atom   2.6933344129228264E+01   4.1365728905246160E+00   7.5258297685018380E+00  O   0.0000000000000000E+00   0.0000000000000000E+00   0.0000000000000000E+00   0.0000000000000000E+00   0.0000000000000000E+00
atom   2.6932884478806244E+01   5.9148585476389846E+00   6.9162518268002735E+00  H   0.0000000000000000E+00   0.0000000000000000E+00   0.0000000000000000E+00   0.0000000000000000E+00   0.0000000000000000E+00
atom   2.6938331725795411E+01   9.0471687590410070E+00   6.0251475813472344E-01  O   0.0000000000000000E+00   0.0000000000000000E+00   0.0000000000000000E+00   0.0000000000000000E+00   0.0000000000000000E+00
atom   2.6922146948873365E+01   7.2780742664672964E+00  -3.2037794625936075E-02  H   0.0000000000000000E+00   0.0000000000000000E+00   0.0000000000000000E+00   0.0000000000000000E+00   0.0000000000000000E+00
atom   3.1173013379807681E+01   1.6954618206536685E+00   6.0238867546661368E-01  O   0.0000000000000000E+00   0.0000000000000000E+00   0.0000000000000000E+00   0.0000000000000000E+00   0.0000000000000000E+00
atom   3.2712955642322967E+01   2.5663634175532892E+00  -3.2191761602822902E-02  H   0.0000000000000000E+00   0.0000000000000000E+00   0.0000000000000000E+00   0.0000000000000000E+00   0.0000000000000000E+00
atom   3.1188207532711793E+01  -7.3438927793669645E-02  -3.1798441996462701E-02  H   0.0000000000000000E+00   0.0000000000000000E+00   0.0000000000000000E+00   0.0000000000000000E+00   0.0000000000000000E+00
atom   3.1182706575148181E+01   1.6897406983452965E+00   5.8009784802965783E+00  O   0.0000000000000000E+00   0.0000000000000000E+00   0.0000000000000000E+00   0.0000000000000000E+00   0.0000000000000000E+00
atom   2.9643005575962640E+01   2.5788710399180794E+00   6.4103851736076409E+00  H   0.0000000000000000E+00   0.0000000000000000E+00   0.0000000000000000E+00   0.0000000000000000E+00   0.0000000000000000E+00
atom   3.1167496934036222E+01   1.6988781180042516E+00   3.9212711933123794E+00  H   0.0000000000000000E+00   0.0000000000000000E+00   0.0000000000000000E+00   0.0000000000000000E+00   0.0000000000000000E+00
atom   2.9902644148747806E+00   9.9359458650613686E+00  -3.2735308211895395E-02  H   0.0000000000000000E+00   0.0000000000000000E+00   0.0000000000000000E+00   0.0000000000000000E+00   0.0000000000000000E+00
atom  -5.8473148298711773E-02   9.9365087702927237E+00  -3.2339852234130828E-02  H   0.0000000000000000E+00   0.0000000000000000E+00   0.0000000000000000E+00   0.0000000000000000E+00   0.0000000000000000E+00
atom   5.7154620425117644E+00   1.1491146664687502E+01   7.5338451962217166E+00  O   0.0000000000000000E+00   0.0000000000000000E+00   0.0000000000000000E+00   0.0000000000000000E+00   0.0000000000000000E+00
atom   4.1757333859790595E+00   1.0620550596085220E+01   6.8983311590381033E+00  H   0.0000000000000000E+00   0.0000000000000000E+00   0.0000000000000000E+00   0.0000000000000000E+00   0.0000000000000000E+00
atom   5.6995926447712115E+00   1.3260505052114141E+01   6.8993381669619414E+00  H   0.0000000000000000E+00   0.0000000000000000E+00   0.0000000000000000E+00   0.0000000000000000E+00   0.0000000000000000E+00
atom   8.4306369652641582E+00   9.9371687837982527E+00   6.4277370655645196E+00  H   0.0000000000000000E+00   0.0000000000000000E+00   0.0000000000000000E+00   0.0000000000000000E+00   0.0000000000000000E+00
atom   1.4707942411224422E+00   1.8848710882139990E+01   7.5257767296852895E+00  O   0.0000000000000000E+00   0.0000000000000000E+00   0.0000000000000000E+00   0.0000000000000000E+00   0.0000000000000000E+00
atom  -6.9132679240543754E-02   1.7959408661409139E+01   6.9165271469580070E+00  H   0.0000000000000000E+00   0.0000000000000000E+00   0.0000000000000000E+00   0.0000000000000000E+00   0.0000000000000000E+00
atom   5.7104742373548021E+00   1.6401857833857559E+01   5.9456376732235883E-01  O   0.0000000000000000E+00   0.0000000000000000E+00   0.0000000000000000E+00   0.0000000000000000E+00   0.0000000000000000E+00
atom   5.7105798832398005E+00   1.6384176487068956E+01   2.4743942505823342E+00  H   0.0000000000000000E+00   0.0000000000000000E+00   0.0000000000000000E+00   0.0000000000000000E+00   0.0000000000000000E+00
atom   5.7107855524680353E+00   1.4623822742765501E+01  -1.5076155887395408E-02  H   0.0000000000000000E+00   0.0000000000000000E+00   0.0000000000000000E+00   0.0000000000000000E+00   0.0000000000000000E+00
atom   5.7106123193839835E+00   1.6390589149045280E+01   5.7929006479288292E+00  O   0.0000000000000000E+00   0.0000000000000000E+00   0.0000000000000000E+00   0.0000000000000000E+00   0.0000000000000000E+00
atom   7.2347944984021000E+00   1.7288466752547450E+01   6.4284403016313654E+00  H   0.0000000000000000E+00   0.0000000000000000E+00   0.0000000000000000E+00   0.0000000000000000E+00   0.0000000000000000E+00
atom   4.1863474250754589E+00   1.7287672946571838E+01   6.4280717852246037E+00  H   0.0000000000000000E+00   0.0000000000000000E+00   0.0000000000000000E+00   0.0000000000000000E+00   0.0000000000000000E+00
atom   1.1479988844978310E+01   9.9368977430087693E+00   6.4283667912168747E+00  H   0.0000000000000000E+00   0.0000000000000000E+00   0.0000000000000000E+00   0.0000000000000000E+00   0.0000000000000000E+00
atom   1.1490225424636574E+01   9.9307340616004556E+00  -1.4339693857807404E-02  H   0.0000000000000000E+00   0.0000000000000000E+00   0.0000000000000000E+00   0.0000000000000000E+00   0.0000000000000000E+00
atom   1.4194679750198885E+01   1.1491179741913186E+01   7.5339145427868948E+00  O   0.0000000000000000E+00   0.0000000000000000E+00   0.0000000000000000E+00   0.0000000000000000E+00   0.0000000000000000E+00
atom   1.5734273148320547E+01   1.0620291293026513E+01   6.8980330664089937E+00  H   0.0000000000000000E+00   0.0000000000000000E+00   0.0000000000000000E+00   0.0000000000000000E+00   0.0000000000000000E+00
atom   1.4210303098484525E+01   1.3259973267257408E+01   6.8988104933825030E+00  H   0.0000000000000000E+00   0.0000000000000000E+00   0.0000000000000000E+00   0.0000000000000000E+00   0.0000000000000000E+00
atom   9.9550622994771896E+00   1.8840062097096446E+01   7.5256891649260487E+00  O   0.0000000000000000E+00   0.0000000000000000E+00   0.0000000000000000E+00   0.0000000000000000E+00   0.0000000000000000E+00
atom   1.4199702403042203E+01   1.6390470640393872E+01   6.0254459221970891E-01  O   0.0000000000000000E+00   0.0000000000000000E+00   0.0000000000000000E+00   0.0000000000000000E+00   0.0000000000000000E+00
atom   1.2675170897457003E+01   1.7288072428385647E+01  -3.3286118090340211E-02  H   0.0000000000000000E+00   0.0000000000000000E+00   0.0000000000000000E+00   0.0000000000000000E+00   0.0000000000000000E+00
atom   1.5723956882976642E+01   1.7289070765450113E+01  -3.2983407459939142E-02  H   0.0000000000000000E+00   0.0000000000000000E+00   0.0000000000000000E+00   0.0000000000000000E+00   0.0000000000000000E+00
atom   1.4204562760179025E+01   1.6393230514059866E+01   5.8010046989170512E+00  O   0.0000000000000000E+00   0.0000000000000000E+00   0.0000000000000000E+00   0.0000000000000000E+00   0.0000000000000000E+00
atom   1.2664436801104586E+01   1.7282783994725101E+01   6.4109205148403872E+00  H   0.0000000000000000E+00   0.0000000000000000E+00   0.0000000000000000E+00   0.0000000000000000E+00   0.0000000000000000E+00
atom   1.4188940374206091E+01   1.6402934795744798E+01   3.9219157798589066E+00  H   0.0000000000000000E+00   0.0000000000000000E+00   0.0000000000000000E+00   0.0000000000000000E+00   0.0000000000000000E+00
atom   1.6908865654791100E+01   1.7972564494637041E+01   6.8982236671552837E+00  H   0.0000000000000000E+00   0.0000000000000000E+00   0.0000000000000000E+00   0.0000000000000000E+00   0.0000000000000000E+00
atom   1.9979448974479986E+01   9.9180511428517892E+00  -3.2733592810570956E-02  H   0.0000000000000000E+00   0.0000000000000000E+00   0.0000000000000000E+00   0.0000000000000000E+00   0.0000000000000000E+00
atom   2.2693751141262890E+01   1.1496986359293635E+01   7.5258275749084884E+00  O   0.0000000000000000E+00   0.0000000000000000E+00   0.0000000000000000E+00   0.0000000000000000E+00   0.0000000000000000E+00
atom   2.1153812567319484E+01   1.0607507716336862E+01   6.9160229517946741E+00  H   0.0000000000000000E+00   0.0000000000000000E+00   0.0000000000000000E+00   0.0000000000000000E+00   0.0000000000000000E+00
atom   2.5397909662912703E+01   9.9299326613860224E+00   6.4107746717662382E+00  H   0.0000000000000000E+00   0.0000000000000000E+00   0.0000000000000000E+00   0.0000000000000000E+00   0.0000000000000000E+00
atom   1.8449183533761040E+01   1.8843028119739280E+01   7.5338782021827830E+00  O   0.0000000000000000E+00   0.0000000000000000E+00   0.0000000000000000E+00   0.0000000000000000E+00   0.0000000000000000E+00
atom   2.2693691122045852E+01   1.6393333909707678E+01   5.9451239063358907E-01  O   0.0000000000000000E+00   0.0000000000000000E+00   0.0000000000000000E+00   0.0000000000000000E+00   0.0000000000000000E+00
atom   2.1154266481251717E+01   1.7282082238270281E+01  -1.5239136496235635E-02  H   0.0000000000000000E+00   0.0000000000000000E+00   0.0000000000000000E+00   0.0000000000000000E+00   0.0000000000000000E+00
atom   2.2677815569150887E+01   1.6402159784937105E+01   2.4736429743267183E+00  H   0.0000000000000000E+00   0.0000000000000000E+00   0.0000000000000000E+00   0.0000000000000000E+00   0.0000000000000000E+00
atom   2.2693878149968395E+01   1.6399018612551970E+01   5.7928759773709064E+00  O   0.0000000000000000E+00   0.0000000000000000E+00   0.0000000000000000E+00   0.0000000000000000E+00   0.0000000000000000E+00
atom   2.1154136264023517E+01   1.7269244108980981E+01   6.4280389802268729E+00  H   0.0000000000000000E+00   0.0000000000000000E+00   0.0000000000000000E+00   0.0000000000000000E+00   0.0000000000000000E+00
atom   2.2677167854512003E+01   1.4630023255114937E+01   6.4282276212953189E+00  H   0.0000000000000000E+00   0.0000000000000000E+00   0.0000000000000000E+00   0.0000000000000000E+00   0.0000000000000000E+00
atom   2.5398752443176850E+01   9.9179929219373957E+00  -3.2917170149624989E-02  H   0.0000000000000000E+00   0.0000000000000000E+00   0.0000000000000000E+00   0.0000000000000000E+00   0.0000000000000000E+00
atom   2.5397314239093173E+01   1.7959698330704637E+01   6.9162049418038487E+00  H   0.0000000000000000E+00   0.0000000000000000E+00   0.0000000000000000E+00   0.0000000000000000E+00   0.0000000000000000E+00
atom   3.1177977488329716E+01   1.1499595603715553E+01   7.5338487076666576E+00  O   0.0000000000000000E+00   0.0000000000000000E+00   0.0000000000000000E+00   0.0000000000000000E+00   0.0000000000000000E+00
atom   2.9653452462334808E+01   1.0602373049565205E+01   6.8983624418940721E+00  H   0.0000000000000000E+00   0.0000000000000000E+00   0.0000000000000000E+00   0.0000000000000000E+00   0.0000000000000000E+00
atom   3.2702563176471187E+01   1.0601548597318347E+01   6.8982893004098305E+00  H   0.0000000000000000E+00   0.0000000000000000E+00   0.0000000000000000E+00   0.0000000000000000E+00   0.0000000000000000E+00
atom   2.6938310166676992E+01   1.8848641091932350E+01   7.5256864434074062E+00  O   0.0000000000000000E+00   0.0000000000000000E+00   0.0000000000000000E+00   0.0000000000000000E+00   0.0000000000000000E+00
atom   3.1173015085512219E+01   1.6393429515717099E+01   5.9441721934680336E-01  O   0.0000000000000000E+00   0.0000000000000000E+00   0.0000000000000000E+00   0.0000000000000000E+00   0.0000000000000000E+00
atom   3.2713459177647827E+01   1.7282150729460529E+01  -1.5557223022743694E-02  H   0.0000000000000000E+00   0.0000000000000000E+00   0.0000000000000000E+00   0.0000000000000000E+00   0.0000000000000000E+00
atom   3.1188175139909411E+01   1.6402056160389208E+01   2.4736909317862112E+00  H   0.0000000000000000E+00   0.0000000000000000E+00   0.0000000000000000E+00   0.0000000000000000E+00   0.0000000000000000E+00
atom   3.1182795404989953E+01   1.6399104217296362E+01   5.7929375139403714E+00  O   0.0000000000000000E+00   0.0000000000000000E+00   0.0000000000000000E+00   0.0000000000000000E+00   0.0000000000000000E+00
atom   2.9642486167755834E+01   1.7269555676158138E+01   6.4283505227729929E+00  H   0.0000000000000000E+00   0.0000000000000000E+00   0.0000000000000000E+00   0.0000000000000000E+00   0.0000000000000000E+00
atom   3.1167315848482609E+01   1.4630233273201991E+01   6.4274013613272309E+00  H   0.0000000000000000E+00   0.0000000000000000E+00   0.0000000000000000E+00   0.0000000000000000E+00   0.0000000000000000E+00
atom   1.4609632652417555E+00   2.3750857820302887E+01   6.0249328504123878E-01  O   0.0000000000000000E+00   0.0000000000000000E+00   0.0000000000000000E+00   0.0000000000000000E+00   0.0000000000000000E+00
atom   3.0016570075493432E+00   2.4621466482360646E+01  -3.2422726743886278E-02  H   0.0000000000000000E+00   0.0000000000000000E+00   0.0000000000000000E+00   0.0000000000000000E+00   0.0000000000000000E+00
atom   1.4773184555969643E+00   2.1981822549983651E+01  -3.2891499791582721E-02  H   0.0000000000000000E+00   0.0000000000000000E+00   0.0000000000000000E+00   0.0000000000000000E+00   0.0000000000000000E+00
atom   5.7154020593804828E+00   2.6200492000027616E+01   7.5256975257485683E+00  O   0.0000000000000000E+00   0.0000000000000000E+00   0.0000000000000000E+00   0.0000000000000000E+00   0.0000000000000000E+00
atom   4.1752624014050674E+00   2.5310987515502148E+01   6.9163338989863199E+00  H   0.0000000000000000E+00   0.0000000000000000E+00   0.0000000000000000E+00   0.0000000000000000E+00   0.0000000000000000E+00
atom   8.4308713687864216E+00   2.4639521644833717E+01   6.4282070765958448E+00  H   0.0000000000000000E+00   0.0000000000000000E+00   0.0000000000000000E+00   0.0000000000000000E+00   0.0000000000000000E+00
atom   1.4659582225951955E+00   2.3753663267551136E+01   5.8009087602914819E+00  O   0.0000000000000000E+00   0.0000000000000000E+00   0.0000000000000000E+00   0.0000000000000000E+00   0.0000000000000000E+00
atom   1.4661413009211832E+00   2.3735451259282655E+01   3.9212410751340840E+00  H   0.0000000000000000E+00   0.0000000000000000E+00   0.0000000000000000E+00   0.0000000000000000E+00   0.0000000000000000E+00
atom   1.4657625312668305E+00   2.1975261983739856E+01   6.4109588039058369E+00  H   0.0000000000000000E+00   0.0000000000000000E+00   0.0000000000000000E+00   0.0000000000000000E+00   0.0000000000000000E+00
atom   9.9551330582776245E+00   2.3742314841972295E+01   5.7928414002399684E+00  O   0.0000000000000000E+00   0.0000000000000000E+00   0.0000000000000000E+00   0.0000000000000000E+00   0.0000000000000000E+00
atom   1.1479263045249009E+01   2.4640066658780761E+01   6.4286866757939007E+00  H   0.0000000000000000E+00   0.0000000000000000E+00   0.0000000000000000E+00   0.0000000000000000E+00   0.0000000000000000E+00
atom   9.9550756152765256E+00   2.0618390527240251E+01   6.9172445324271798E+00  H   0.0000000000000000E+00   0.0000000000000000E+00   0.0000000000000000E+00   0.0000000000000000E+00   0.0000000000000000E+00
atom   9.9551294795722054E+00   2.3753588624013435E+01   5.9449385184160375E-01  O   0.0000000000000000E+00   0.0000000000000000E+00   0.0000000000000000E+00   0.0000000000000000E+00   0.0000000000000000E+00
atom   9.9549835113836895E+00   2.3736134327236602E+01   2.4735926172855236E+00  H   0.0000000000000000E+00   0.0000000000000000E+00   0.0000000000000000E+00   0.0000000000000000E+00   0.0000000000000000E+00
atom   9.9545212587336778E+00   2.1975701533480027E+01  -1.5086963458593613E-02  H   0.0000000000000000E+00   0.0000000000000000E+00   0.0000000000000000E+00   0.0000000000000000E+00   0.0000000000000000E+00
atom   1.4199597055220677E+01   2.6191795366304877E+01   7.5258066505533394E+00  O   0.0000000000000000E+00   0.0000000000000000E+00   0.0000000000000000E+00   0.0000000000000000E+00   0.0000000000000000E+00
atom   1.4199666850538669E+01   2.7970054773682403E+01   6.9164345397725686E+00  H   0.0000000000000000E+00   0.0000000000000000E+00   0.0000000000000000E+00   0.0000000000000000E+00   0.0000000000000000E+00
atom   1.6909307738538143E+01   2.4634387028769734E+01   6.4109134392914600E+00  H   0.0000000000000000E+00   0.0000000000000000E+00   0.0000000000000000E+00   0.0000000000000000E+00   0.0000000000000000E+00
atom   1.6919770697085305E+01   2.4640061170987220E+01  -3.3559173589467611E-02  H   0.0000000000000000E+00   0.0000000000000000E+00   0.0000000000000000E+00   0.0000000000000000E+00   0.0000000000000000E+00
atom   1.8449146359956213E+01   2.3745004718344180E+01   5.8010098419990612E+00  O   0.0000000000000000E+00   0.0000000000000000E+00   0.0000000000000000E+00   0.0000000000000000E+00   0.0000000000000000E+00
atom   1.8433433136102050E+01   2.3754517517357318E+01   3.9219096378410838E+00  H   0.0000000000000000E+00   0.0000000000000000E+00   0.0000000000000000E+00   0.0000000000000000E+00   0.0000000000000000E+00
atom   1.8432765285538331E+01   2.0612461257733575E+01   6.8983071548197321E+00  H   0.0000000000000000E+00   0.0000000000000000E+00   0.0000000000000000E+00   0.0000000000000000E+00   0.0000000000000000E+00
atom   1.8444228216004397E+01   2.3742210823327714E+01   6.0265148905200316E-01  O   0.0000000000000000E+00   0.0000000000000000E+00   0.0000000000000000E+00   0.0000000000000000E+00   0.0000000000000000E+00
atom   1.9968473583248223E+01   2.4640266651696592E+01  -3.3144830719184101E-02  H   0.0000000000000000E+00   0.0000000000000000E+00   0.0000000000000000E+00   0.0000000000000000E+00   0.0000000000000000E+00
atom   2.2688670414525795E+01   2.6203327000276030E+01   7.5338568459216129E+00  O   0.0000000000000000E+00   0.0000000000000000E+00   0.0000000000000000E+00   0.0000000000000000E+00   0.0000000000000000E+00
atom   2.1164149778292966E+01   2.5305303742609254E+01   6.8984565500139592E+00  H   0.0000000000000000E+00   0.0000000000000000E+00   0.0000000000000000E+00   0.0000000000000000E+00   0.0000000000000000E+00
atom   2.4212721054399065E+01   2.5305534780171044E+01   6.8988741207654405E+00  H   0.0000000000000000E+00   0.0000000000000000E+00   0.0000000000000000E+00   0.0000000000000000E+00   0.0000000000000000E+00
atom   2.6928388718045010E+01   2.3750894708656308E+01   5.7929211428740750E+00  O   0.0000000000000000E+00   0.0000000000000000E+00   0.0000000000000000E+00   0.0000000000000000E+00   0.0000000000000000E+00
atom   2.8468991416412418E+01   2.4621466962561236E+01   6.4279882854697590E+00  H   0.0000000000000000E+00   0.0000000000000000E+00   0.0000000000000000E+00   0.0000000000000000E+00   0.0000000000000000E+00
atom   2.6943922156125421E+01   2.1981940449827537E+01   6.4281137462430280E+00  H   0.0000000000000000E+00   0.0000000000000000E+00   0.0000000000000000E+00   0.0000000000000000E+00   0.0000000000000000E+00
atom   2.6933244226983742E+01   2.3753772133634236E+01   5.9440149962809175E-01  O   0.0000000000000000E+00   0.0000000000000000E+00   0.0000000000000000E+00   0.0000000000000000E+00   0.0000000000000000E+00
atom   2.6933802326519455E+01   2.3735039765403265E+01   2.4741222764954154E+00  H   0.0000000000000000E+00   0.0000000000000000E+00   0.0000000000000000E+00   0.0000000000000000E+00   0.0000000000000000E+00
atom   2.6933552566621824E+01   2.1975036059910465E+01  -1.4363255494424366E-02  H   0.0000000000000000E+00   0.0000000000000000E+00   0.0000000000000000E+00   0.0000000000000000E+00   0.0000000000000000E+00
atom   3.1172878897990291E+01   2.6194856669680650E+01   7.5339152616631075E+00  O   0.0000000000000000E+00   0.0000000000000000E+00   0.0000000000000000E+00   0.0000000000000000E+00   0.0000000000000000E+00
atom   3.2712515064062217E+01   2.5324065004836427E+01   6.8980570925941791E+00  H   0.0000000000000000E+00   0.0000000000000000E+00   0.0000000000000000E+00   0.0000000000000000E+00   0.0000000000000000E+00
atom   3.1188688452358655E+01   2.7963593387552812E+01   6.8986684574085047E+00  H   0.0000000000000000E+00   0.0000000000000000E+00   0.0000000000000000E+00   0.0000000000000000E+00   0.0000000000000000E+00
atom   1.4547005589911921E+00   4.1360953752364651E+00   9.4056363007967612E+00  H   0.0000000000000000E+00   0.0000000000000000E+00   0.0000000000000000E+00   0.0000000000000000E+00   0.0000000000000000E+00
atom   1.4709081110703959E+00   4.1394561048350971E+00   1.2724198609244700E+01  O   0.0000000000000000E+00   0.0000000000000000E+00   0.0000000000000000E+00   0.0000000000000000E+00   0.0000000000000000E+00
atom  -6.8748420816439323E-02   3.2686553509625611E+00   1.3359820025572304E+01  H   0.0000000000000000E+00   0.0000000000000000E+00   0.0000000000000000E+00   0.0000000000000000E+00   0.0000000000000000E+00
atom   1.4545302083400078E+00   5.9084666227795157E+00   1.3359454331386040E+01  H   0.0000000000000000E+00   0.0000000000000000E+00   0.0000000000000000E+00   0.0000000000000000E+00   0.0000000000000000E+00
atom   1.4710074636844122E+00   9.0415041069096702E+00   1.4457158495821632E+01  O   0.0000000000000000E+00   0.0000000000000000E+00   0.0000000000000000E+00   0.0000000000000000E+00   0.0000000000000000E+00
atom   1.4546475452391494E+00   9.0504694697902472E+00   1.6336632912684209E+01  H   0.0000000000000000E+00   0.0000000000000000E+00   0.0000000000000000E+00   0.0000000000000000E+00   0.0000000000000000E+00